# vtk DataFile Version 2.0
output test file
ASCII
DATASET UNSTRUCTURED_GRID
POINTS 25 double
48.00000000 44.00000000 0.00000000
48.00000000 60.00000000 0.00000000
48.00000000 48.00000000 0.00000000
48.00000000 52.00000000 0.00000000
48.00000000 56.00000000 0.00000000
0.00000000 0.00000000 0.00000000
0.00000000 44.00000000 0.00000000
0.00000000 33.00000000 0.00000000
0.00000000 22.00000000 0.00000000
0.00000000 11.00000000 0.00000000
12.00000000 11.00000000 0.00000000
24.00000000 22.00000000 0.00000000
36.00000000 33.00000000 0.00000000
36.00000000 56.00000000 0.00000000
24.00000000 52.00000000 0.00000000
12.00000000 48.00000000 0.00000000
12.00000000 38.75000000 0.00000000
12.00000000 29.50000000 0.00000000
12.00000000 20.25000000 0.00000000
24.00000000 44.50000000 0.00000000
24.00000000 37.00000000 0.00000000
24.00000000 29.50000000 0.00000000
36.00000000 50.25000000 0.00000000
36.00000000 44.50000000 0.00000000
36.00000000 38.75000000 0.00000000
CELLS 32 128
3 6 7 15
3 7 16 15
3 7 8 16
3 8 17 16
3 8 9 17
3 9 18 17
3 9 5 18
3 5 10 18
3 15 16 14
3 16 19 14
3 16 17 19
3 17 20 19
3 17 18 20
3 18 21 20
3 18 10 21
3 10 11 21
3 14 19 13
3 19 22 13
3 19 20 22
3 20 23 22
3 20 21 23
3 21 24 23
3 21 11 24
3 11 12 24
3 13 22 1
3 22 4 1
3 22 23 4
3 23 3 4
3 23 24 3
3 24 2 3
3 24 12 2
3 12 0 2
CELL_TYPES 32
5
5
5
5
5
5
5
5
5
5
5
5
5
5
5
5
5
5
5
5
5
5
5
5
5
5
5
5
5
5
5
5
POINT_DATA 25
SCALARS Displacement double 2
LOOKUP_TABLE default
4.00000000 6.00000000
9.00000000 25.00000000
48.00000000 48.00000000
48.00000000 52.00000000
48.00000000 56.00000000
0.00000000 0.00000000
0.00000000 44.00000000
0.00000000 33.00000000
0.00000000 22.00000000
10.00000000 1.00000000
12.00000000 11.00000000
24.00000000 22.00000000
36.00000000 33.00000000
36.00000000 56.00000000
24.00000000 52.00000000
2.00000000 48.00000000
2.00000000 38.75000000
2.00000000 29.50000000
2.00000000 20.25000000
24.00000000 44.50000000
2.00000000 37.00000000
4.00000000 29.50000000
6.00000000 50.25000000
36.00000000 44.50000000
6.00000000 8.75000000