# vtk DataFile Version 2.0
output test file
ASCII
DATASET UNSTRUCTURED_GRID
POINTS 7041 double
0.07300000 0.06550000 0.00000000
0.10500000 0.06550000 0.00000000
0.07300000 0.17230000 0.00000000
0.07862323 0.24700000 0.00000000
0.10500000 0.22200000 0.00000000
0.06800000 0.27400000 0.00000000
0.08407695 0.33400000 0.00000000
0.08900000 0.04950000 0.00000000
0.08735953 0.33935668 0.00000000
0.06816446 0.26771969 0.00000000
0.08106950 0.34344148 0.00000000
0.06067473 0.26732717 0.00000000
0.08900000 0.07300000 0.00000000
0.08900000 0.05800000 0.00000000
0.08150000 0.06550000 0.00000000
0.08150000 0.14800000 0.00000000
0.08900000 0.15550000 0.00000000
0.08900000 0.14050000 0.00000000
0.10500000 0.06550000 0.00750000
0.10500000 0.22200000 0.00750000
0.08407695 0.33400000 0.00750000
0.06800000 0.27400000 0.00750000
0.07862323 0.24700000 0.00750000
0.07300000 0.17230000 0.00750000
0.07300000 0.06550000 0.00750000
0.08900000 0.04950000 0.00750000
0.08900000 0.14050000 0.00750000
0.08150000 0.14800000 0.00750000
0.08900000 0.15550000 0.00750000
0.08900000 0.05800000 0.00750000
0.08150000 0.06550000 0.00750000
0.08900000 0.07300000 0.00750000
0.08735953 0.33935668 0.00750000
0.08106950 0.34344148 0.00750000
0.06067473 0.26732717 0.00750000
0.06816446 0.26771969 0.00750000
0.10500000 0.06550000 -0.00750000
0.10500000 0.22200000 -0.00750000
0.08407695 0.33400000 -0.00750000
0.06800000 0.27400000 -0.00750000
0.07862323 0.24700000 -0.00750000
0.07300000 0.17230000 -0.00750000
0.07300000 0.06550000 -0.00750000
0.08900000 0.04950000 -0.00750000
0.08900000 0.14050000 -0.00750000
0.08150000 0.14800000 -0.00750000
0.08900000 0.15550000 -0.00750000
0.08900000 0.05800000 -0.00750000
0.08150000 0.06550000 -0.00750000
0.08900000 0.07300000 -0.00750000
0.08735953 0.33935668 -0.00750000
0.08106950 0.34344148 -0.00750000
0.06067473 0.26732717 -0.00750000
0.06816446 0.26771969 -0.00750000
0.06800000 0.27400000 0.02000000
0.08407695 0.33400000 0.02000000
0.08735953 0.33935668 0.02000000
0.08106950 0.34344148 0.02000000
0.06067473 0.26732717 0.02000000
0.06816446 0.26771969 0.02000000
0.06800000 0.27400000 -0.02000000
0.08407695 0.33400000 -0.02000000
0.08735953 0.33935668 -0.02000000
0.08106950 0.34344148 -0.02000000
0.06067473 0.26732717 -0.02000000
0.06816446 0.26771969 -0.02000000
0.07300000 0.06995000 0.00000000
0.07300000 0.07440000 0.00000000
0.07300000 0.07885000 0.00000000
0.07300000 0.08330000 0.00000000
0.07300000 0.08775000 0.00000000
0.07300000 0.09220000 0.00000000
0.07300000 0.09665000 0.00000000
0.07300000 0.10110000 0.00000000
0.07300000 0.10555000 0.00000000
0.07300000 0.11000000 0.00000000
0.07300000 0.11445000 0.00000000
0.07300000 0.11890000 0.00000000
0.07300000 0.12335000 0.00000000
0.07300000 0.12780000 0.00000000
0.07300000 0.13225000 0.00000000
0.07300000 0.13670000 0.00000000
0.07300000 0.14115000 0.00000000
0.07300000 0.14560000 0.00000000
0.07300000 0.15005000 0.00000000
0.07300000 0.15450000 0.00000000
0.07300000 0.15895000 0.00000000
0.07300000 0.16340000 0.00000000
0.07300000 0.16785000 0.00000000
0.10500000 0.07039062 0.00000000
0.10500000 0.07528125 0.00000000
0.10500000 0.08017187 0.00000000
0.10500000 0.08506250 0.00000000
0.10500000 0.08995312 0.00000000
0.10500000 0.09484375 0.00000000
0.10500000 0.09973437 0.00000000
0.10500000 0.10462500 0.00000000
0.10500000 0.10951562 0.00000000
0.10500000 0.11440625 0.00000000
0.10500000 0.11929687 0.00000000
0.10500000 0.12418750 0.00000000
0.10500000 0.12907812 0.00000000
0.10500000 0.13396875 0.00000000
0.10500000 0.13885937 0.00000000
0.10500000 0.14375000 0.00000000
0.10500000 0.14864062 0.00000000
0.10500000 0.15353125 0.00000000
0.10500000 0.15842187 0.00000000
0.10500000 0.16331250 0.00000000
0.10500000 0.16820312 0.00000000
0.10500000 0.17309375 0.00000000
0.10500000 0.17798437 0.00000000
0.10500000 0.18287500 0.00000000
0.10500000 0.18776562 0.00000000
0.10500000 0.19265625 0.00000000
0.10500000 0.19754687 0.00000000
0.10500000 0.20243750 0.00000000
0.10500000 0.20732812 0.00000000
0.10500000 0.21221875 0.00000000
0.10500000 0.21710937 0.00000000
0.07335145 0.17696875 0.00000000
0.07370290 0.18163750 0.00000000
0.07405435 0.18630625 0.00000000
0.07440581 0.19097500 0.00000000
0.07475726 0.19564375 0.00000000
0.07510871 0.20031250 0.00000000
0.07546016 0.20498125 0.00000000
0.07581161 0.20965000 0.00000000
0.07616306 0.21431875 0.00000000
0.07651452 0.21898750 0.00000000
0.07686597 0.22365625 0.00000000
0.07721742 0.22832500 0.00000000
0.07756887 0.23299375 0.00000000
0.07792032 0.23766250 0.00000000
0.07827177 0.24233125 0.00000000
0.10412821 0.22666667 0.00000000
0.10325641 0.23133333 0.00000000
0.10238462 0.23600000 0.00000000
0.10151283 0.24066667 0.00000000
0.10064103 0.24533333 0.00000000
0.09976924 0.25000000 0.00000000
0.09889744 0.25466667 0.00000000
0.09802565 0.25933333 0.00000000
0.09715386 0.26400000 0.00000000
0.09628206 0.26866667 0.00000000
0.09541027 0.27333333 0.00000000
0.09453848 0.27800000 0.00000000
0.09366668 0.28266667 0.00000000
0.09279489 0.28733333 0.00000000
0.09192309 0.29200000 0.00000000
0.09105130 0.29666667 0.00000000
0.09017951 0.30133333 0.00000000
0.08930771 0.30600000 0.00000000
0.08843592 0.31066667 0.00000000
0.08756413 0.31533333 0.00000000
0.08669233 0.32000000 0.00000000
0.08582054 0.32466667 0.00000000
0.08494875 0.32933333 0.00000000
0.07039929 0.27116785 0.00000000
0.07252303 0.26812361 0.00000000
0.07435258 0.26489399 0.00000000
0.07587190 0.26150735 0.00000000
0.07706764 0.25799340 0.00000000
0.07792932 0.25438297 0.00000000
0.07844937 0.25070775 0.00000000
0.10469256 0.06237855 0.00000000
0.10378207 0.05937707 0.00000000
0.10230351 0.05661088 0.00000000
0.10031371 0.05418629 0.00000000
0.09788912 0.05219649 0.00000000
0.09512293 0.05071793 0.00000000
0.09212145 0.04980744 0.00000000
0.06806425 0.27792629 0.00000000
0.06825693 0.28184838 0.00000000
0.06857783 0.28576206 0.00000000
0.06902662 0.28966314 0.00000000
0.06960280 0.29354746 0.00000000
0.07030577 0.29741084 0.00000000
0.07113476 0.30124915 0.00000000
0.07208890 0.30505829 0.00000000
0.07316716 0.30883416 0.00000000
0.07436838 0.31257274 0.00000000
0.07569129 0.31627001 0.00000000
0.07713446 0.31992201 0.00000000
0.07869634 0.32352484 0.00000000
0.08037527 0.32707464 0.00000000
0.08216945 0.33056761 0.00000000
0.06052796 0.27132984 0.00000000
0.06050699 0.27533515 0.00000000
0.06061184 0.27933915 0.00000000
0.06084240 0.28333787 0.00000000
0.06119846 0.28732738 0.00000000
0.06167965 0.29130374 0.00000000
0.06228551 0.29526302 0.00000000
0.06301543 0.29920131 0.00000000
0.06386869 0.30311474 0.00000000
0.06484446 0.30699943 0.00000000
0.06594176 0.31085155 0.00000000
0.06715953 0.31466731 0.00000000
0.06849655 0.31844294 0.00000000
0.06995150 0.32217470 0.00000000
0.07152295 0.32585892 0.00000000
0.07320936 0.32949197 0.00000000
0.07500904 0.33307024 0.00000000
0.07692024 0.33659023 0.00000000
0.07894106 0.34004844 0.00000000
0.06809252 0.26928882 0.00000000
0.06804112 0.27085877 0.00000000
0.06801028 0.27242925 0.00000000
0.08487123 0.33535517 0.00000000
0.08568318 0.33669983 0.00000000
0.08651266 0.33803374 0.00000000
0.06254716 0.26742530 0.00000000
0.06441960 0.26752343 0.00000000
0.06629203 0.26762156 0.00000000
0.08264201 0.34242028 0.00000000
0.08421452 0.34139908 0.00000000
0.08578702 0.34037788 0.00000000
0.08587855 0.04980744 0.00000000
0.08287707 0.05071793 0.00000000
0.08011088 0.05219649 0.00000000
0.07768629 0.05418629 0.00000000
0.07569649 0.05661088 0.00000000
0.07421793 0.05937707 0.00000000
0.07330744 0.06237855 0.00000000
0.09187013 0.05857090 0.00000000
0.09430330 0.06019670 0.00000000
0.09592910 0.06262987 0.00000000
0.09650000 0.06550000 0.00000000
0.09592910 0.06837013 0.00000000
0.09430330 0.07080330 0.00000000
0.09187013 0.07242910 0.00000000
0.08612987 0.07242910 0.00000000
0.08369670 0.07080330 0.00000000
0.08207090 0.06837013 0.00000000
0.08207090 0.06262987 0.00000000
0.08369670 0.06019670 0.00000000
0.08612987 0.05857090 0.00000000
0.09187013 0.14107090 0.00000000
0.09430330 0.14269670 0.00000000
0.09592910 0.14512987 0.00000000
0.09650000 0.14800000 0.00000000
0.09592910 0.15087013 0.00000000
0.09430330 0.15330330 0.00000000
0.09187013 0.15492910 0.00000000
0.08612987 0.15492910 0.00000000
0.08369670 0.15330330 0.00000000
0.08207090 0.15087013 0.00000000
0.08207090 0.14512987 0.00000000
0.08369670 0.14269670 0.00000000
0.08612987 0.14107090 0.00000000
0.10500000 0.07039062 0.00750000
0.10500000 0.07528125 0.00750000
0.10500000 0.08017187 0.00750000
0.10500000 0.08506250 0.00750000
0.10500000 0.08995312 0.00750000
0.10500000 0.09484375 0.00750000
0.10500000 0.09973437 0.00750000
0.10500000 0.10462500 0.00750000
0.10500000 0.10951562 0.00750000
0.10500000 0.11440625 0.00750000
0.10500000 0.11929687 0.00750000
0.10500000 0.12418750 0.00750000
0.10500000 0.12907812 0.00750000
0.10500000 0.13396875 0.00750000
0.10500000 0.13885937 0.00750000
0.10500000 0.14375000 0.00750000
0.10500000 0.14864062 0.00750000
0.10500000 0.15353125 0.00750000
0.10500000 0.15842187 0.00750000
0.10500000 0.16331250 0.00750000
0.10500000 0.16820312 0.00750000
0.10500000 0.17309375 0.00750000
0.10500000 0.17798437 0.00750000
0.10500000 0.18287500 0.00750000
0.10500000 0.18776562 0.00750000
0.10500000 0.19265625 0.00750000
0.10500000 0.19754687 0.00750000
0.10500000 0.20243750 0.00750000
0.10500000 0.20732812 0.00750000
0.10500000 0.21221875 0.00750000
0.10500000 0.21710937 0.00750000
0.10412821 0.22666667 0.00750000
0.10325641 0.23133333 0.00750000
0.10238462 0.23600000 0.00750000
0.10151283 0.24066667 0.00750000
0.10064103 0.24533333 0.00750000
0.09976924 0.25000000 0.00750000
0.09889744 0.25466667 0.00750000
0.09802565 0.25933333 0.00750000
[...]
POINT_DATA 7041
SCALARS Displacement double 3
LOOKUP_TABLE default
-0.000000116941473 -0.000001252146830  0.000000000000000
-0.000000114791887  0.000001263978403  0.000000000000000
-0.000055026734999 -0.000014020232759 -0.000000000000000
-0.000136649287298 -0.000013688860774 -0.000000000000000
-0.000106063792161  0.000018234117542 -0.000000000000000
-0.000174554424627 -0.000030741802637 -0.000000000000000
-0.000264307345417 -0.000006760164768 -0.000000000000000
 0.000000516015853  0.000000000567430  0.000000000000000
-0.000272390440147 -0.000001807015333 -0.000000000000000
-0.000165185967734 -0.000030509749947 -0.000000000000000
-0.000278551410379 -0.000011285046957 -0.000000000000001
-0.000164609943066 -0.000041679325443 -0.000000000000000
 0.000000000000000  0.000000000000000  0.000000000000000
 0.000000000000000  0.000000000000000  0.000000000000000
 0.000000000000000  0.000000000000000  0.000000000000000
-0.000034739868341 -0.000005282259940 -0.000000000000000
-0.000040605759158  0.000000109060518 -0.000000000000000
-0.000028966504216  0.000000068024281 -0.000000000000000
-0.000000065490622  0.000001300727949 -0.000000164561945
-0.000106029231100  0.000018236724204 -0.000000143247844
-0.000264328088823 -0.000006743973447  0.000000013601094
-0.000174569156813 -0.000030763713766  0.000000020193446
-0.000136577301085 -0.000013686499200  0.000000193797653
-0.000054982440033 -0.000014018566279  0.000000191976588
-0.000000068746396 -0.000001288434647  0.000000160817612
 0.000000527285726  0.000000000494551 -0.000000000280270
-0.000028922701349  0.000000067347869  0.000000001511069
-0.000034695088905 -0.000005286211493  0.000000158145242
-0.000040553079854  0.000000108225406 -0.000000004854147
 0.000000000000000  0.000000000000000  0.000000000000000
 0.000000000000000  0.000000000000000  0.000000000000000
 0.000000000000000  0.000000000000000  0.000000000000000
-0.000272413317801 -0.000001788483430  0.000000016514579
-0.000278575784106 -0.000011270271812 -0.000000030716750
-0.000164645118764 -0.000041685827122 -0.000000043593846
-0.000165223319924 -0.000030530234341  0.000000009606059
-0.000000065490622  0.000001300727949  0.000000164561945
-0.000106029231100  0.000018236724204  0.000000143247844
-0.000264328088823 -0.000006743973447 -0.000000013601095
-0.000174569156813 -0.000030763713766 -0.000000020193446
-0.000136577301085 -0.000013686499200 -0.000000193797654
-0.000054982440033 -0.000014018566279 -0.000000191976589
-0.000000068746396 -0.000001288434647 -0.000000160817612
 0.000000527285726  0.000000000494551  0.000000000280270
-0.000028922701349  0.000000067347869 -0.000000001511069
-0.000034695088905 -0.000005286211493 -0.000000158145242
-0.000040553079854  0.000000108225406  0.000000004854147
 0.000000000000000  0.000000000000000  0.000000000000000
 0.000000000000000  0.000000000000000  0.000000000000000
 0.000000000000000  0.000000000000000  0.000000000000000
-0.000272413317801 -0.000001788483430 -0.000000016514580
-0.000278575784106 -0.000011270271812  0.000000030716749
-0.000164645118764 -0.000041685827122  0.000000043593845
-0.000165223319924 -0.000030530234341 -0.000000009606060
-0.000174699736953 -0.000030826766058  0.000000033995593
-0.000264428013309 -0.000006671161056  0.000000026888103
-0.000272510508528 -0.000001718345892  0.000000026052181
-0.000278675760097 -0.000011207328641 -0.000000047031884
-0.000164786060968 -0.000041711663968 -0.000000063102891
-0.000165367095381 -0.000030581922584  0.000000020425256
-0.000174699736953 -0.000030826766058 -0.000000033995593
-0.000264428013309 -0.000006671161056 -0.000000026888104
-0.000272510508528 -0.000001718345892 -0.000000026052182
-0.000278675760096 -0.000011207328641  0.000000047031883
-0.000164786060968 -0.000041711663968  0.000000063102890
-0.000165367095381 -0.000030581922584 -0.000000020425257
-0.000000487280239 -0.000001637672984 -0.000000000000000
-0.000000956486480 -0.000002168861611 -0.000000000000000
-0.000001657798548 -0.000002786274193 -0.000000000000000
-0.000002544863197 -0.000003435624588 -0.000000000000000
-0.000003618183375 -0.000004085089024 -0.000000000000000
-0.000004882680208 -0.000004725449944 -0.000000000000000
-0.000006330461214 -0.000005350800151 -0.000000000000000
-0.000007950030145 -0.000005961067217 -0.000000000000000
-0.000009738173908 -0.000006557499358 -0.000000000000000
-0.000011690664817 -0.000007140491793 -0.000000000000000
-0.000013804247751 -0.000007709974160 -0.000000000000000
-0.000016073131055 -0.000008267202664 -0.000000000000000
-0.000018499096351 -0.000008811364543 -0.000000000000000
-0.000021048246949 -0.000009352036733 -0.000000000000000
-0.000023814260499 -0.000009878652424 -0.000000000000000
-0.000026701669745 -0.000010413396797 -0.000000000000000
-0.000029782642766 -0.000010974547217 -0.000000000000000
-0.000033071795524 -0.000011511521541 -0.000000000000000
-0.000036525712369 -0.000011969343298 -0.000000000000000
-0.000040017011097 -0.000012393563538 -0.000000000000000
-0.000043593277872 -0.000012820410114 -0.000000000000000
-0.000047287876725 -0.000013242895068 -0.000000000000000
-0.000051101933516 -0.000013645522762 -0.000000000000000
-0.000000535859690  0.000001702602437  0.000000000000000
-0.000001079195563  0.000002305978176  0.000000000000000
-0.000001902555834  0.000003017657433  0.000000000000000
-0.000002961087868  0.000003755263262  0.000000000000000
-0.000004262227398  0.000004470799417 -0.000000000000000
-0.000005768399419  0.000005147646494 -0.000000000000000
-0.000007447128756  0.000005823226101 -0.000000000000000
-0.000009346676301  0.000006497318129 -0.000000000000000
-0.000011469080824  0.000007157571433 -0.000000000000000
-0.000013783430509  0.000007798187346 -0.000000000000000
-0.000016289260896  0.000008419417947 -0.000000000000000
-0.000018975646217  0.000009025965235 -0.000000000000000
-0.000021847154068  0.000009629529719 -0.000000000000000
-0.000024915556214  0.000010233407680 -0.000000000000000
-0.000028183201006  0.000010837880286 -0.000000000000000
-0.000031656668439  0.000011445079569 -0.000000000000000
-0.000035428567683  0.000012004131356 -0.000000000000000
-0.000039247237875  0.000012500463064 -0.000000000000000
-0.000043171787197  0.000012979758039 -0.000000000000000
-0.000047192974664  0.000013443497518 -0.000000000000000
-0.000051395925696  0.000013910187638 -0.000000000000000
-0.000055716666358  0.000014361066585 -0.000000000000000
-0.000060175978466  0.000014799238089 -0.000000000000000
-0.000064765062175  0.000015225934095 -0.000000000000000
-0.000069484440615  0.000015643062042 -0.000000000000000
-0.000074332753178  0.000016051266057 -0.000000000000000
-0.000079309125423  0.000016450641588 -0.000000000000000
-0.000084413004843  0.000016841432180 -0.000000000000000
-0.000089644551516  0.000017223126760 -0.000000000000000
-0.000095003461282  0.000017591433622 -0.000000000000000
-0.000100484865772  0.000017933916647 -0.000000000000000
-0.000059250435609 -0.000014089599698 -0.000000000000000
-0.000063592882692 -0.000014157740364 -0.000000000000000
-0.000068054581312 -0.000014215053244 -0.000000000000000
-0.000072637501308 -0.000014258222307 -0.000000000000000
-0.000077340018909 -0.000014284782699 -0.000000000000000
-0.000082159517125 -0.000014293393192 -0.000000000000000
-0.000087093315073 -0.000014284053248 -0.000000000000000
-0.000092139753474 -0.000014257245219 -0.000000000000000
-0.000097297266914 -0.000014212988285 -0.000000000000000
-0.000102562871077 -0.000014153258193 -0.000000000000000
-0.000107939156337 -0.000014083077475 -0.000000000000000
-0.000113430688090 -0.000014004255221 -0.000000000000000
-0.000119032881923 -0.000013921373216 -0.000000000000000
-0.000124763074363 -0.000013836047609 -0.000000000000000
-0.000130632358090 -0.000013753466375 -0.000000000000000
-0.000111499798671  0.000017524372837 -0.000000000000000
-0.000117045770042  0.000016830439016 -0.000000000000000
-0.000122721291594  0.000016132915102 -0.000000000000000
-0.000128539030432  0.000015421715927 -0.000000000000000
-0.000134505764525  0.000014690744549 -0.000000000000000
-0.000140633117437  0.000013932203401 -0.000000000000000
-0.000146926655148  0.000013134707528 -0.000000000000000
-0.000153380163932  0.000012285890306 -0.000000000000000
-0.000159979745982  0.000011374812984 -0.000000000000000
-0.000166700554901  0.000010396557516 -0.000000000000000
-0.000173516018940  0.000009352534656 -0.000000000000000
-0.000180399828410  0.000008249316016 -0.000000000000000
-0.000187325993586  0.000007098342613 -0.000000000000000
-0.000194280147456  0.000005906283149 -0.000000000000000
-0.000201250070855  0.000004683740200 -0.000000000000000
-0.000208227610072  0.000003443003435 -0.000000000000000
-0.000215211226993  0.000002191236758 -0.000000000000000
-0.000222200584388  0.000000931582127 -0.000000000000000
-0.000229201670950 -0.000000334482410 -0.000000000000000
-0.000236208285102 -0.000001606438228 -0.000000000000000
-0.000243223031770 -0.000002883626711 -0.000000000000000
-0.000250245308977 -0.000004167707585 -0.000000000000000
-0.000257274180840 -0.000005460790170 -0.000000000000000
-0.000170382210944 -0.000027106539224 -0.000000000000000
-0.000165922488893 -0.000023858570793 -0.000000000000000
-0.000161265525499 -0.000021045517230 -0.000000000000000
-0.000156434243039 -0.000018665391629 -0.000000000000000
-0.000151497365028 -0.000016734267917 -0.000000000000000
-0.000146517895367 -0.000015260523394 -0.000000000000000
-0.000141549496904 -0.000014246179317 -0.000000000000000
 0.000000072119129  0.000001065360460  0.000000000000000
 0.000000224001838  0.000000883816740  0.000000000000000
 0.000000338854313  0.000000708002317  0.000000000000000
 0.000000416390321  0.000000542129270  0.000000000000000
 0.000000466423075  0.000000392216842  0.000000000000000
 0.000000496026341  0.000000254058688  0.000000000000000
 0.000000511703613  0.000000125456774  0.000000000000000
-0.000180377190421 -0.000030663008776 -0.000000000000000
-0.000186192602605 -0.000030401704685 -0.000000000000000
-0.000192001242025 -0.000029948940043 -0.000000000000000
-0.000197799595389 -0.000029302814217 -0.000000000000000
-0.000203582729624 -0.000028462811711 -0.000000000000000
-0.000209344675124 -0.000027429406845 -0.000000000000000
-0.000215078833533 -0.000026203398719 -0.000000000000000
-0.000220778260592 -0.000024785922445 -0.000000000000000
-0.000226436031223 -0.000023178312226 -0.000000000000000
-0.000232045153235 -0.000021382213228 -0.000000000000000
-0.000237598888945 -0.000019399453404 -0.000000000000000
-0.000243090768888 -0.000017231880303 -0.000000000000000
-0.000248514256463 -0.000014881456090 -0.000000000000000
-0.000253862831104 -0.000012350500189 -0.000000000000000
-0.000259129610005 -0.000009642364824 -0.000000000000000
-0.000170573561918 -0.000041893218964 -0.000000000000000
-0.000176536538558 -0.000041924215324 -0.000000000000000
-0.000182487099551 -0.000041769213967 -0.000000000000000
-0.000188424040914 -0.000041439958106 -0.000000000000000
-0.000194349287443 -0.000040928983743 -0.000000000000000
-0.000200261492674 -0.000040236731683 -0.000000000000000
-0.000206157720120 -0.000039360183442 -0.000000000000000
-0.000212032820915 -0.000038297473215 -0.000000000000000
-0.000217880686018 -0.000037047832320 -0.000000000000000
-0.000223694823127 -0.000035611338897 -0.000000000000000
-0.000229468640226 -0.000033988693479 -0.000000000000000
-0.000235195588672 -0.000032181062038 -0.000000000000000
-0.000240869254537 -0.000030189928820 -0.000000000000000
-0.000246483337617 -0.000028016969800 -0.000000000000001
-0.000252031582418 -0.000025664035165 -0.000000000000001
-0.000257507173632 -0.000023133403728 -0.000000000000001
-0.000262906183584 -0.000020426388837 -0.000000000000001
-0.000268217013672 -0.000017546797698 -0.000000000000001
-0.000273436307100 -0.000014497646868 -0.000000000000001
-0.000167525360985 -0.000030617467104 -0.000000000000000
-0.000169865015890 -0.000030693681286 -0.000000000000000
-0.000172206101618 -0.000030737119559 -0.000000000000000
-0.000266353246985 -0.000005559434986 -0.000000000000000
-0.000268382184995 -0.000004334201594 -0.000000000000000
-0.000270394819290 -0.000003083248061 -0.000000000000000
-0.000164751794208 -0.000038888347202 -0.000000000000000
-0.000164895505501 -0.000036096143106 -0.000000000000000
-0.000165040005290 -0.000033303159639 -0.000000000000000
-0.000277009177672 -0.000008916232818 -0.000000000000001
-0.000275468697072 -0.000006546966564 -0.000000000000000
-0.000273929166157 -0.000004177392227 -0.000000000000000
 0.000000510737242 -0.000000124065541  0.000000000000000
 0.000000494289097 -0.000000251950996  0.000000000000000
 0.000000464169866 -0.000000389006643  0.000000000000000
 0.000000414007563 -0.000000537461929  0.000000000000000
 0.000000336721634 -0.000000701799598  0.000000000000000
 0.000000222378373 -0.000000876056536  0.000000000000000
 0.000000070675837 -0.000001056158837  0.000000000000000
 0.000000000000000  0.000000000000000  0.000000000000000
 0.000000000000000  0.000000000000000  0.000000000000000
 0.000000000000000  0.000000000000000  0.000000000000000
 0.000000000000000  0.000000000000000  0.000000000000000
 0.000000000000000  0.000000000000000  0.000000000000000
 0.000000000000000  0.000000000000000  0.000000000000000
 0.000000000000000  0.000000000000000  0.000000000000000
 0.000000000000000  0.000000000000000  0.000000000000000
 0.000000000000000  0.000000000000000  0.000000000000000
 0.000000000000000  0.000000000000000  0.000000000000000
 0.000000000000000  0.000000000000000  0.000000000000000
 0.000000000000000  0.000000000000000  0.000000000000000
 0.000000000000000  0.000000000000000  0.000000000000000
-0.000029409764738  0.000001882877543 -0.000000000000000
-0.000030600846689  0.000003503592680 -0.000000000000000
-0.000032491412794  0.000004806023613 -0.000000000000000
-0.000034732527734  0.000005466058927 -0.000000000000000
-0.000036963855240  0.000005300257995 -0.000000000000000
-0.000038870380514  0.000004235269977 -0.000000000000000
-0.000040150111810  0.000002394779400 -0.000000000000000
-0.000040160616017 -0.000002182012105 -0.000000000000000
-0.000038861740189 -0.000004041479332 -0.000000000000000
-0.000036972636894 -0.000005114288607 -0.000000000000000
-0.000032490120113 -0.000004625186296 -0.000000000000000
-0.000030605408764 -0.000003356931613 -0.000000000000000
-0.000029396269191 -0.000001738655274 -0.000000000000000
-0.000000469047848  0.000001742984676 -0.000000242370358
-0.000001004104659  0.000002335949452 -0.000000303821931
-0.000001819519863  0.000003029186096 -0.000000337373764
-0.000002876558892  0.000003756321782 -0.000000341021793
-0.000004179562656  0.000004468468738 -0.000000334468028
-0.000005687026543  0.000005144235521 -0.000000328966634
-0.000007365572928  0.000005819795293 -0.000000324710307
-0.000009266315914  0.000006493698807 -0.000000319947121
-0.000011392157301  0.000007153045358 -0.000000310823740
-0.000013709829633  0.000007793419302 -0.000000300431138
-0.000016217460854  0.000008415302971 -0.000000292689367
-0.000018903165827  0.000009022637462 -0.000000289039599
-0.000021771664083  0.000009626225393 -0.000000288382296
-0.000024834960328  0.000010229322909 -0.000000289396009
-0.000028098668946  0.000010834487606 -0.000000288659606
-0.000031582675978  0.000011443759778 -0.000000272444438
-0.000035374830203  0.000012000744011 -0.000000254706026
-0.000039202371024  0.000012490506810 -0.000000230772959
-0.000043123760428  0.000012971360779 -0.000000222702552
-0.000047142559301  0.000013438841860 -0.000000215759017
-0.000051343090079  0.000013906982928 -0.000000217495202
-0.000055665789903  0.000014357555959 -0.000000209189373
-0.000060126746795  0.000014795902979 -0.000000203188250
-0.000064716843113  0.000015222789637 -0.000000197941126
-0.000069436839228  0.000015640073406 -0.000000193442423
-0.000074285604818  0.000016048318117 -0.000000189193620
-0.000079262329605  0.000016447575703 -0.000000185038805
-0.000084366534245  0.000016837906268 -0.000000180783977
-0.000089598745546  0.000017218705374 -0.000000175438451
-0.000094959972296  0.000017586402228 -0.000000166599120
-0.000100446363386  0.000017930458221 -0.000000152963240
-0.000111459463717  0.000017533774337 -0.000000154667978
-0.000116998303766  0.000016842197246 -0.000000167725911
-0.000122668393734  0.000016144510429 -0.000000176022322
-0.000128481677706  0.000015432401726 -0.000000181294697
-0.000134444687562  0.000014700231941 -0.000000183570167
-0.000140569975287  0.000013940160251 -0.000000181937966
-0.000146864294297  0.000013140530020 -0.000000174867652
-0.000153321963275  0.000012289087360 -0.000000161532711
-0.000159928781633  0.000011375260975 -0.000000142870901
-0.000166658609555  0.000010394604576 -0.000000121123471
-0.000173483630661  0.000009348753101 -0.000000098674765
-0.000180375941463  0.000008244487432 -0.000000078059238
-0.000187309233464  0.000007093465377 -0.000000059860231
-0.000194269341494  0.000005901950145 -0.000000044669472
-0.000201242853573  0.000004680190421 -0.000000034313554
-0.000208222021506  0.000003440425881 -0.000000028024185
-0.000215206269732  0.000002189396217 -0.000000024080956
-0.000222195606804  0.000000930206823 -0.000000021158128
-0.000229196117052 -0.000000335698726 -0.000000019262123
-0.000236202603267 -0.000001607816398 -0.000000016730484
-0.000243218162082 -0.000002885050932 -0.000000013196693
-0.000250244932701 -0.000004167633801 -0.000000006413860
-0.000257283977241 -0.000005455616474  0.000000004103139
-0.000259144813169 -0.000009628132077  0.000000009459598
-0.000253874658378 -0.000012336045986  0.000000009906161
-0.000248524269183 -0.000014867018135  0.000000010608224
-0.000243100136391 -0.000017217908718  0.000000011509553
-0.000237608278042 -0.000019386279907  0.000000012521128
-0.000232054970832 -0.000021370072317  0.000000013688398
-0.000226446648289 -0.000023167395507  0.000000015035585
-0.000220790002038 -0.000024776531229  0.000000016506398
-0.000215091939507 -0.000026196005380  0.000000017998043
-0.000209359376255 -0.000027424561311  0.000000019414070
-0.000203599088775 -0.000028461165769  0.000000020549986
-0.000197817513037 -0.000029305042967  0.000000021289475
-0.000192020256103 -0.000029955706536  0.000000021490414
-0.000186211807113 -0.000030413464964  0.000000021052490
-0.000180396190715 -0.000030679476588  0.000000019988220
-0.000170378152938 -0.000027088679525  0.000000052260398
-0.000165906496949 -0.000023832044309  0.000000078816806
-0.000161234947487 -0.000021015092269  0.000000108920437
-0.000156390569010 -0.000018635117346  0.000000134136077
-0.000151441056381 -0.000016706771673  0.000000158522744
-0.000146451011922 -0.000015239127962  0.000000179100879
-0.000141476117131 -0.000014233923764  0.000000193277635
-0.000130569103224 -0.000013757533257  0.000000183593209
-0.000124706913087 -0.000013840960992  0.000000173865443
-0.000118980873175 -0.000013925313049  0.000000169522005
-0.000113381496241 -0.000014007581399  0.000000167561874
-0.000107891646102 -0.000014085928012  0.000000166356787
-0.000102516259053 -0.000014155262503  0.000000166812360
-0.000097251010253 -0.000014214162291  0.000000168896557
-0.000092093114173 -0.000014258011114  0.000000172660985
-0.000087046056168 -0.000014284695248  0.000000176905901
-0.000082111590867 -0.000014294088236  0.000000181292531
-0.000077291445326 -0.000014285708016  0.000000185605121
-0.000072588473632 -0.000014259568670  0.000000189445588
-0.000068005585860 -0.000014216930213  0.000000192185969
-0.000063544828814 -0.000014160001962  0.000000193398469
-0.000059204762795 -0.000014090825995  0.000000191185190
-0.000051054972685 -0.000013641174477  0.000000199970394