# vtk DataFile Version 2.0
output test file
ASCII
DATASET UNSTRUCTURED_GRID
POINTS 2673 double
2.00000000 0.00000000 0.00000000
0.00000000 1.00000000 0.00000000
3.25000000 0.00000000 0.00000000
0.00000000 2.75000000 0.00000000
1.99908425 0.03025792 0.00000000
1.99634780 0.06040583 0.00000000
1.99182239 0.09033766 0.00000000
1.98555872 0.11995475 0.00000000
1.97762353 0.14916868 0.00000000
1.96809604 0.17790306 0.00000000
1.95706421 0.20609444 0.00000000
1.94462118 0.23369235 0.00000000
1.93086209 0.26065858 0.00000000
1.91588145 0.28696615 0.00000000
1.89977116 0.31259780 0.00000000
1.88261907 0.33754460 0.00000000
1.86450803 0.36180444 0.00000000
1.84551534 0.38538069 0.00000000
1.82571261 0.40828099 0.00000000
1.80516569 0.43051621 0.00000000
1.78393490 0.45209962 0.00000000
1.76207533 0.47304612 0.00000000
1.73963713 0.49337173 0.00000000
1.71666593 0.51309309 0.00000000
1.69320317 0.53222716 0.00000000
1.66928654 0.55079090 0.00000000
1.64495025 0.56880108 0.00000000
1.62022543 0.58627416 0.00000000
1.59514041 0.60322614 0.00000000
1.56972097 0.61967251 0.00000000
1.54399066 0.63562820 0.00000000
1.51797096 0.65110755 0.00000000
1.49168152 0.66612428 0.00000000
1.46514034 0.68069152 0.00000000
1.43836393 0.69482178 0.00000000
1.41136746 0.70852697 0.00000000
1.38416489 0.72181846 0.00000000
1.35676909 0.73470702 0.00000000
1.32919195 0.74720291 0.00000000
1.30144447 0.75931586 0.00000000
1.27353681 0.77105512 0.00000000
1.24547843 0.78242947 0.00000000
1.21727811 0.79344722 0.00000000
1.18894403 0.80411630 0.00000000
1.16048380 0.81444419 0.00000000
1.13190453 0.82443801 0.00000000
1.10321290 0.83410451 0.00000000
1.07441512 0.84345008 0.00000000
1.04551706 0.85248080 0.00000000
1.01652421 0.86120244 0.00000000
0.98744174 0.86962044 0.00000000
0.95827453 0.87773998 0.00000000
0.92902719 0.88556599 0.00000000
0.89970406 0.89310310 0.00000000
0.87030927 0.90035573 0.00000000
0.84084674 0.90732805 0.00000000
0.81132016 0.91402401 0.00000000
0.78173308 0.92044736 0.00000000
0.75208886 0.92660163 0.00000000
0.72239071 0.93249017 0.00000000
0.69264170 0.93811613 0.00000000
0.66284476 0.94348249 0.00000000
0.63300271 0.94859206 0.00000000
0.60311825 0.95344748 0.00000000
0.57319400 0.95805123 0.00000000
0.54323244 0.96240565 0.00000000
0.51323600 0.96651291 0.00000000
0.48320702 0.97037505 0.00000000
0.45314776 0.97399398 0.00000000
0.42306041 0.97737146 0.00000000
0.39294712 0.98050912 0.00000000
0.36280994 0.98340848 0.00000000
0.33265090 0.98607091 0.00000000
0.30247199 0.98849769 0.00000000
0.27227514 0.99068994 0.00000000
0.24206224 0.99264871 0.00000000
0.21183516 0.99437491 0.00000000
0.18159574 0.99586934 0.00000000
0.15134578 0.99713270 0.00000000
0.12108708 0.99816556 0.00000000
0.09082139 0.99896840 0.00000000
0.06055049 0.99954160 0.00000000
0.03027611 0.99988541 0.00000000
3.24925191 0.05900084 0.00000000
3.24700853 0.11796377 0.00000000
3.24327252 0.17685096 0.00000000
3.23804831 0.23562483 0.00000000
3.23134206 0.29424810 0.00000000
3.22316163 0.35268389 0.00000000
3.21351654 0.41089588 0.00000000
3.20241790 0.46884832 0.00000000
3.18987839 0.52650616 0.00000000
3.17591215 0.58383514 0.00000000
3.16053471 0.64080183 0.00000000
3.14376296 0.69737373 0.00000000
3.12561500 0.75351930 0.00000000
3.10611011 0.80920803 0.00000000
3.08526862 0.86441048 0.00000000
3.06311184 0.91909830 0.00000000
3.03966199 0.97324429 0.00000000
3.01494207 1.02682237 0.00000000
2.98897577 1.07980764 0.00000000
2.96178742 1.13217638 0.00000000
2.93340189 1.18390602 0.00000000
2.90384449 1.23497515 0.00000000
2.87314089 1.28536352 0.00000000
2.84131707 1.33505201 0.00000000
2.80839923 1.38402262 0.00000000
2.77441372 1.43225842 0.00000000
2.73938699 1.47974356 0.00000000
2.70334551 1.52646319 0.00000000
2.66631574 1.57240348 0.00000000
2.62832404 1.61755156 0.00000000
2.58939668 1.66189545 0.00000000
2.54955976 1.70542409 0.00000000
2.50883916 1.74812724 0.00000000
2.46726057 1.78999547 0.00000000
2.42484939 1.83102012 0.00000000
2.38163073 1.87119325 0.00000000
2.33762940 1.91050760 0.00000000
2.29286989 1.94895658 0.00000000
2.24737634 1.98653418 0.00000000
2.20117252 2.02323498 0.00000000
2.15428186 2.05905409 0.00000000
2.10672738 2.09398712 0.00000000
2.05853175 2.12803016 0.00000000
2.00971725 2.16117972 0.00000000
1.96030576 2.19343272 0.00000000
1.91031881 2.22478645 0.00000000
1.85977750 2.25523854 0.00000000
1.80870258 2.28478695 0.00000000
1.75711443 2.31342993 0.00000000
1.70503305 2.34116599 0.00000000
1.65247808 2.36799388 0.00000000
1.59946881 2.39391257 0.00000000
1.54602418 2.41892125 0.00000000
1.49216278 2.44301925 0.00000000
1.43790289 2.46620611 0.00000000
1.38326249 2.48848148 0.00000000
1.32825920 2.50984514 0.00000000
1.27291040 2.53029700 0.00000000
1.21723315 2.54983705 0.00000000
1.16124426 2.56846537 0.00000000
1.10496026 2.58618210 0.00000000
1.04839745 2.60298747 0.00000000
0.99157189 2.61888172 0.00000000
0.93449939 2.63386516 0.00000000
0.87719558 2.64793810 0.00000000
0.81967589 2.66110090 0.00000000
0.76195554 2.67335391 0.00000000
0.70404960 2.68469750 0.00000000
0.64597295 2.69513203 0.00000000
0.58774036 2.70465784 0.00000000
0.52936642 2.71327529 0.00000000
0.47086564 2.72098469 0.00000000
0.41225237 2.72778635 0.00000000
0.35354090 2.73368054 0.00000000
0.29474543 2.73866750 0.00000000
0.23588005 2.74274744 0.00000000
0.17695884 2.74592054 0.00000000
0.11799578 2.74818694 0.00000000
0.05900486 2.74954674 0.00000000
0.00000000 1.05468750 0.00000000
0.00000000 1.10937500 0.00000000
0.00000000 1.16406250 0.00000000
0.00000000 1.21875000 0.00000000
0.00000000 1.27343750 0.00000000
0.00000000 1.32812500 0.00000000
0.00000000 1.38281250 0.00000000
0.00000000 1.43750000 0.00000000
0.00000000 1.49218750 0.00000000
0.00000000 1.54687500 0.00000000
0.00000000 1.60156250 0.00000000
0.00000000 1.65625000 0.00000000
0.00000000 1.71093750 0.00000000
0.00000000 1.76562500 0.00000000
0.00000000 1.82031250 0.00000000
0.00000000 1.87500000 0.00000000
0.00000000 1.92968750 0.00000000
0.00000000 1.98437500 0.00000000
0.00000000 2.03906250 0.00000000
0.00000000 2.09375000 0.00000000
0.00000000 2.14843750 0.00000000
0.00000000 2.20312500 0.00000000
0.00000000 2.25781250 0.00000000
0.00000000 2.31250000 0.00000000
0.00000000 2.36718750 0.00000000
0.00000000 2.42187500 0.00000000
0.00000000 2.47656250 0.00000000
0.00000000 2.53125000 0.00000000
0.00000000 2.58593750 0.00000000
0.00000000 2.64062500 0.00000000
0.00000000 2.69531250 0.00000000
2.03906250 0.00000000 0.00000000
2.07812500 0.00000000 0.00000000
2.11718750 0.00000000 0.00000000
2.15625000 0.00000000 0.00000000
2.19531250 0.00000000 0.00000000
2.23437500 0.00000000 0.00000000
2.27343750 0.00000000 0.00000000
2.31250000 0.00000000 0.00000000
2.35156250 0.00000000 0.00000000
2.39062500 0.00000000 0.00000000
2.42968750 0.00000000 0.00000000
2.46875000 0.00000000 0.00000000
2.50781250 0.00000000 0.00000000
2.54687500 0.00000000 0.00000000
2.58593750 0.00000000 0.00000000
2.62500000 0.00000000 0.00000000
2.66406250 0.00000000 0.00000000
2.70312500 0.00000000 0.00000000
2.74218750 0.00000000 0.00000000
2.78125000 0.00000000 0.00000000
2.82031250 0.00000000 0.00000000
2.85937500 0.00000000 0.00000000
2.89843750 0.00000000 0.00000000
2.93750000 0.00000000 0.00000000
2.97656250 0.00000000 0.00000000
3.01562500 0.00000000 0.00000000
3.05468750 0.00000000 0.00000000
3.09375000 0.00000000 0.00000000
3.13281250 0.00000000 0.00000000
3.17187500 0.00000000 0.00000000
3.21093750 0.00000000 0.00000000
2.43413877 0.67480726 0.00000000
1.98046361 1.20697553 0.00000000
1.38348856 1.58126347 0.00000000
0.70885320 1.80212011 0.00000000
2.11965223 0.55266174 0.00000000
2.52956938 0.33740363 0.00000000
2.23709528 0.28554799 0.00000000
2.74862531 0.79695278 0.00000000
2.86599364 0.40312597 0.00000000
1.69591554 0.95775125 0.00000000
2.20730119 0.94089139 0.00000000
1.91376331 0.76358278 0.00000000
2.26501168 1.45619981 0.00000000
2.52430913 1.13797170 0.00000000
1.17088154 1.22950173 0.00000000
1.68197608 1.39411950 0.00000000
1.43546006 1.09911790 0.00000000
1.59609557 1.93302521 0.00000000
1.94157430 1.70867724 0.00000000
0.59603011 1.38624758 0.00000000
1.04617088 1.69169179 0.00000000
0.88428079 1.31209098 0.00000000
0.82167630 2.21799263 0.00000000
1.21471668 2.09008663 0.00000000
0.35442660 1.83856005 0.00000000
0.29824442 1.41560438 0.00000000
0.41264612 2.27977237 0.00000000
2.09085823 0.25962017 0.00000000
2.27479764 0.14277399 0.00000000
2.13017818 0.13136437 0.00000000
1.96240896 0.49158898 0.00000000
2.17837375 0.41910486 0.00000000
2.03049641 0.37832473 0.00000000
2.27689550 0.61373450 0.00000000
2.48185407 0.50610544 0.00000000
2.38333233 0.31147581 0.00000000
2.33011391 0.46260515 0.00000000
2.57728469 0.16870181 0.00000000
2.42604117 0.15573790 0.00000000
2.69778151 0.37026480 0.00000000
2.90174682 0.20156299 0.00000000
2.73951576 0.18513240 0.00000000
2.59138204 0.73588002 0.00000000
2.80730947 0.60003938 0.00000000
2.64458177 0.55307241 0.00000000
2.90586858 0.85802554 0.00000000
3.03420577 0.43598714 0.00000000
2.97553622 0.64870655 0.00000000
3.06989757 0.21859391 0.00000000
1.76699437 0.67492847 0.00000000
2.01670777 0.65812226 0.00000000
1.86668685 0.58560767 0.00000000
1.55364150 0.83313911 0.00000000
1.80483942 0.86066701 0.00000000
1.66140519 0.75588728 0.00000000
1.83818957 1.08236339 0.00000000
2.09388240 1.07393346 0.00000000
2.06053225 0.85223708 0.00000000
1.94936091 0.96730024 0.00000000
2.32071998 0.80784933 0.00000000
2.16871387 0.73298579 0.00000000
2.36580516 1.03943155 0.00000000
2.63646722 0.96746224 0.00000000
2.47859360 0.88765578 0.00000000
2.12273765 1.33158767 0.00000000
2.39466041 1.29708576 0.00000000
2.24427140 1.18550961 0.00000000
[...]
POINT_DATA 2673
SCALARS Displacement double 2
LOOKUP_TABLE default
-0.000101663762956  0.000000000000000 
 0.000000000000000  0.000549129950294
-0.000073536773547  0.000000000000000
 0.000000000000000  0.000545838081567
-0.000101600820083  0.000013296976588
-0.000101382599883  0.000026583226771
-0.000101012586666  0.000039820999128
-0.000100492805810  0.000052972891269
-0.000099842193539  0.000066025879193
-0.000099052210992  0.000078952767248
-0.000098141338373  0.000091735175427
-0.000097121551504  0.000104347191608
-0.000096015986612  0.000116802473757
-0.000094810166193  0.000129083020200
-0.000093523800265  0.000141181839002
-0.000092164649834  0.000153086305720
-0.000090749416314  0.000164804386326
-0.000089276067734  0.000176327268882
-0.000087759280058  0.000187654441301
-0.000086209980043  0.000198778478232
-0.000084644347307  0.000209728730843
-0.000083045037908  0.000220495868599
-0.000081423786250  0.000231078207129
-0.000079784301323  0.000241472757733
-0.000078134794119  0.000251685305550
-0.000076474495919  0.000261714225338
-0.000074809507836  0.000271561289996
-0.000073142477297  0.000281225734114
-0.000071479559427  0.000290714083667
-0.000069818064657  0.000300025048911
-0.000068161975333  0.000309159706002
-0.000066512572158  0.000318117737515
-0.000064873340514  0.000326901990183
-0.000063243773640  0.000335511976247
-0.000061626392264  0.000343948714629
-0.000060022389857  0.000352211927414
-0.000058435828529  0.000360307643661
-0.000056862344079  0.000368233280257
-0.000055303671081  0.000375988777282
-0.000053760094836  0.000383573714714
-0.000052233026861  0.000390989214415
-0.000050721890458  0.000398234773923
-0.000049227543452  0.000405310758287
-0.000047750047981  0.000412216905452
-0.000046290435800  0.000418954456097
-0.000044847622966  0.000425522686359
-0.000043422063230  0.000431921745712
-0.000042013591600  0.000438151351016
-0.000040622616014  0.000444212043447
-0.000039248539324  0.000450103366961
-0.000037891554841  0.000455825498136
-0.000036551482472  0.000461378260255
-0.000035228836837  0.000466763293408
-0.000033921702544  0.000471978903421
-0.000032630135460  0.000477024999308
-0.000031353796729  0.000481901261380
-0.000030092608975  0.000486607935181
-0.000028845932189  0.000491144558809
-0.000027613564371  0.000495511163865
-0.000026395077265  0.000499707492089
-0.000025190247869  0.000503733928134
-0.000023998244547  0.000507589870743
-0.000022818768188  0.000511275321224
-0.000021651341228  0.000514790029239
-0.000020495609073  0.000518134187260
-0.000019350932959  0.000521307413908
-0.000018216968712  0.000524309778264
-0.000017093282734  0.000527141166204
-0.000015979307994  0.000529802514709
-0.000014873775685  0.000532292563884
-0.000013776344424  0.000534611281980
-0.000012686531615  0.000536758448464
-0.000011603849960  0.000538734237650
-0.000010527653616  0.000540538309637
-0.000009457465419  0.000542170721062
-0.000008392753997  0.000543631310510
-0.000007332919305  0.000544920409021
-0.000006277223537  0.000546037570949
-0.000005225166893  0.000546982858349
-0.000004176211268  0.000547756121320
-0.000003129775333  0.000548357585136
-0.000002085245156  0.000548786987987
-0.000001042136953  0.000549044456485
-0.000073197087248 -0.000001241960450
-0.000072205785089 -0.000002432440132
-0.000070565495720 -0.000003527384561
-0.000068291083851 -0.000004482782870
-0.000065389057375 -0.000005251848321
-0.000061887419449 -0.000005792842193
-0.000057805070831 -0.000006064902501
-0.000053171616194 -0.000006031880688
-0.000048006031808 -0.000005651802202
-0.000042353317817 -0.000004895030290
-0.000036245044895 -0.000003731609834
-0.000029721214730 -0.000002137473959
-0.000022815670648 -0.000000085379622
-0.000015575474552  0.000002440575830
-0.000008039589273  0.000005457339859
-0.000000251644501  0.000008974438788
 0.000007753264498  0.000013012409972
 0.000015919846592  0.000017567831724
 0.000024207855455  0.000022642984756
 0.000032574244379  0.000028234175733
 0.000040979293660  0.000034340970112
 0.000049379907933  0.000040952030536
 0.000057738107570  0.000048058684107
 0.000066016172779  0.000055646641268
 0.000074177922943  0.000063706117225
 0.000082186807026  0.000072214622137
 0.000090011055175  0.000081154309203
 0.000097620387505  0.000090503126375
 0.000104985314968  0.000100241329740
 0.000112079283336  0.000110342556374
 0.000118877752517  0.000120783271509
 0.000125359181438  0.000131537547386
 0.000131498928653  0.000142582245090
 0.000137280274176  0.000153885446552
 0.000142686926820  0.000165420654638
 0.000147705362456  0.000177159864488
 0.000152321028064  0.000189075972438
 0.000156524712867  0.000201139885819
 0.000160306761068  0.000213324319714
 0.000163660868018  0.000225601915410
 0.000166577984642  0.000237945028688
 0.000169056776696  0.000250325625830
 0.000171093962419  0.000262717430334
 0.000172689313176  0.000275094720747
 0.000173840827168  0.000287431239752
 0.000174551892583  0.000299702157054
 0.000174824176008  0.000311883086839
 0.000174662150375  0.000323951367384
 0.000174066108519  0.000335880691276
 0.000173046343775  0.000347649782249
 0.000171608779781  0.000359237096208
 0.000169761750787  0.000370622668473
 0.000167511805883  0.000381784759776
 0.000164869928194  0.000392705179808
 0.000161845031005  0.000403364841120
 0.000158448130746  0.000413747019789
 0.000154688004016  0.000423831502189
 0.000150578974275  0.000433604126185
 0.000146132351213  0.000443048824927
 0.000141361240543  0.000452151933257
 0.000136277389168  0.000460897256052
 0.000130895707013  0.000469273365742
 0.000125229190901  0.000477266944138
 0.000119292066231  0.000484867517971
 0.000113096922837  0.000492058508943
 0.000106661627263  0.000498833847036
 0.000100000388869  0.000505183237506
 0.000093128606638  0.000511098986834
 0.000086060998480  0.000516570392588
 0.000078814166466  0.000521592141986
 0.000071403343504  0.000526156339923
 0.000063844445320  0.000530258012486
 0.000056153106273  0.000533887730147
 0.000048346802675  0.000537044170031
 0.000040441318622  0.000539722108803
 0.000032452960015  0.000541919214463
 0.000024398037393  0.000543630048415
 0.000016293472467  0.000544854831780
 0.000008155423437  0.000545590794251
 0.000000000000000  0.000549596369457
 0.000000000000000  0.000549885379787
 0.000000000000000  0.000550025594773
 0.000000000000000  0.000550042962000
 0.000000000000000  0.000549960611903
 0.000000000000000  0.000549799034000
 0.000000000000000  0.000549576338298
 0.000000000000000  0.000549308366952
 0.000000000000000  0.000549008815820
 0.000000000000000  0.000548689480095
 0.000000000000000  0.000548360483450
 0.000000000000000  0.000548030370625
 0.000000000000000  0.000547706275561
 0.000000000000000  0.000547394072039
 0.000000000000000  0.000547098523059
 0.000000000000000  0.000546823455513
 0.000000000000000  0.000546571586636
 0.000000000000000  0.000546344829055
 0.000000000000000  0.000546144674572
 0.000000000000000  0.000545971979134
 0.000000000000000  0.000545827082476
 0.000000000000000  0.000545709892993
 0.000000000000000  0.000545619961156
 0.000000000000000  0.000545556564491
 0.000000000000000  0.000545518536297
 0.000000000000000  0.000545504493050
 0.000000000000000  0.000545513107189
 0.000000000000000  0.000545542914869
 0.000000000000000  0.000545592137631
 0.000000000000000  0.000545659030980
 0.000000000000000  0.000545741721820
-0.000105892721508  0.000000000000000
-0.000108590743720  0.000000000000000
-0.000110226049353  0.000000000000000
-0.000111103595990  0.000000000000000
-0.000111426597955  0.000000000000000
-0.000111335270586  0.000000000000000
-0.000110930098909  0.000000000000000
-0.000110283799806  0.000000000000000
-0.000109448944593  0.000000000000000
-0.000108465002414  0.000000000000000
-0.000107362354251  0.000000000000000
-0.000106164054185  0.000000000000000
-0.000104887756682  0.000000000000000
-0.000103547059373  0.000000000000000
-0.000102152497100  0.000000000000000
-0.000100712355079  0.000000000000000
-0.000099232349723  0.000000000000000
-0.000097716530193  0.000000000000000
-0.000096168595760  0.000000000000000
-0.000094591179163  0.000000000000000
-0.000092986088654  0.000000000000000
-0.000091354489549  0.000000000000000
-0.000089697046702  0.000000000000000
-0.000088014065738  0.000000000000000
-0.000086305046235  0.000000000000000
-0.000084569220156  0.000000000000000
-0.000082806048524  0.000000000000000
-0.000081014738279  0.000000000000000
-0.000079193829353  0.000000000000000
-0.000077341951735  0.000000000000000
-0.000075457161049  0.000000000000000
-0.000048901449498  0.000077182580666
 0.000032516324563  0.000223164907945
 0.000067356425937  0.000385691737555
 0.000048893123353  0.000504189468318
-0.000065013455270  0.000116219146622
-0.000088168145354  0.000032473271281
-0.000097226143943  0.000052160935454
-0.000027688821793  0.000045565957473
-0.000072462539695  0.000015054360908
-0.000005690555376  0.000276193277732
-0.000008104848462  0.000146190045585
-0.000033450657326  0.000196786500962
 0.000073662831382  0.000179140067562
 0.000024080711688  0.000103365501756
 0.000020388632667  0.000420717338441
 0.000054517742732  0.000308746506885
 0.000010065044397  0.000354491552995
 0.000116294020907  0.000355246125893
 0.000103610395069  0.000268186733867
 0.000017795323918  0.000516215010629
 0.000061749057906  0.000453837217866
 0.000020871534613  0.000476193363139
 0.000081436786515  0.000494062658726
 0.000106184490249  0.000433655852463
 0.000025738215609  0.000536192136104
 0.000009509693156  0.000541074063906
 0.000043394091251  0.000532491109416
-0.000098706212212  0.000069766725175
-0.000107267492195  0.000024477219846
-0.000107639701375  0.000033480244759
-0.000072847548736  0.000148024455572
-0.000082782765713  0.000083446333748
-0.000086601475045  0.000108816674705
-0.000057465930349  0.000094431901825
-0.000071001271858  0.000053620197880
-0.000093399856786  0.000041022331358
-0.000077537128813  0.000066620989006
-0.000098446256156  0.000014544327484
-0.000103597453200  0.000018848876332
-0.000080770171641  0.000023887184461
-0.000084832088621  0.000006253265647
-0.000091941117669  0.000010505251822
-0.000039014468023  0.000061472867535
-0.000053235643299  0.000028456941555
-0.000062710623867  0.000041113391132
-0.000014814477830  0.000028339274730
-0.000063288504174  0.000005251875475
-0.000042168833047  0.000014162118242
-0.000076885894740  0.000001292118973
-0.000049284981344  0.000233361632088
-0.000049323133986  0.000156014436408
-0.000060853914052  0.000191380948932
-0.000029027490678  0.000311017905527
-0.000019232133934  0.000237451852951
-0.000038923569443  0.000273594323318
 0.000013857450641  0.000247548780792
 0.000012772139018  0.000184546703498
-0.000020625440753  0.000168891254762
-0.000002857792131  0.000208566320063
-0.000029132582602  0.000109768734304
-0.000039393747727  0.000130254550662
 0.000006993051576  0.000124606841578
-0.000002886344074  0.000072226615355
-0.000016878182255  0.000090951584128
 0.000052088751417  0.000200947850769
 0.000049374322937  0.000140209313598
 0.000030084746861  0.000162138574984
 0.000097928509866  0.000156363530115
 0.000043638396673  0.000080787944387
 0.000071901902393  0.000116570685223
 0.000013652663887  0.000051517443544
-0.000016065464320  0.000382119709496
 0.000002658082676  0.000316745170128
-0.000022309315009  0.000348158008381
-0.000006040061454  0.000440773029876
 0.000015712227655  0.000389321671822
-0.000010791291212  0.000413063812066
 0.000044291450125  0.000402346624626
 0.000062146232070  0.000348741282558
 0.000032873999403  0.000330206779961
 0.000039458663470  0.000367917820114
 0.000044574589115  0.000266499331544
 0.000024197312630  0.000289835033758
 0.000078114309335  0.000288152914805
 0.000090009326457  0.000223705824087
 0.000066329399897  0.000244810670284
 0.000091001078747  0.000370228623043
 0.000111656345009  0.000312952025613
 0.000086031899117  0.000330558944088
 0.000144002298394  0.000340032945919
 0.000131919931326  0.000247663336294
 0.000140507643089  0.000294630989907
 0.000117117101445  0.000201371243654
-0.000001495792761  0.000488273706292
 0.000020950657533  0.000450375890938
-0.000003609495298  0.000466224322095
 0.000001129069542  0.000522309696899
 0.000019687664149  0.000498188475270
 0.000000012991426  0.000506985796008
 0.000033480575563  0.000510000701183
 0.000056202946580  0.000481396018888
 0.000041597395353  0.000464590296840
 0.000038159110381  0.000489498537293
 0.000065486419297  0.000421788266003
 0.000043585839027  0.000435466603795
 0.000083300396897  0.000443494748577
 0.000112751170956  0.000396537985643
 0.000088387259035  0.000408908493659
 0.000064696068483  0.000498907764210
 0.000095088069977  0.000466562074048
 0.000075083771350  0.000473746676673
 0.000099534446177  0.000489459038168
 0.000131074985393  0.000423884000653
 0.000117157133743  0.000459434024531
 0.000139844178184  0.000383887930232
 0.000000899426135  0.000543114137170
 0.000013751734996  0.000530721782299
 0.000001063190785  0.000534449414845
 0.000004894081279  0.000547280522040
 0.000000529493111  0.000548313895912
 0.000013160695400  0.000544212828210
 0.000017684334475  0.000538574435452
 0.000009057252044  0.000545712850759
 0.000037672174656  0.000522807316507
 0.000025810000204  0.000526651474091
 0.000034322715983  0.000534113471264
 0.000063121480109  0.000516367701167
 0.000050046779769  0.000519364283366
 0.000022023476028  0.000542292843359
 0.000017469406437  0.000543032237907
 0.000053179719742  0.000531250405454
 0.000027013808358  0.000541952013090
 0.000077469376169  0.000513655534427
-0.000105495555919  0.000041002621090
-0.000110124725919  0.000016338780731
-0.000107623852455  0.000020217950609
-0.000098223396797  0.000083751168079
-0.000103751517515  0.000051490464926
-0.000102258342988  0.000062366980692
-0.000098336280772  0.000059747093335
-0.000103044662301  0.000038017941867
-0.000108012886688  0.000028306852581
-0.000103886531236  0.000043773304751
-0.000109708477339  0.000011757610261
-0.000110548010385  0.000013691746102
-0.000088702783004  0.000127661904016
-0.000092990488779  0.000089252021787
-0.000093660660240  0.000105843280864
-0.000078196386933  0.000170401155433
-0.000079946727866  0.000128659168225
-0.000083579902195  0.000149369373436
-0.000068718928274  0.000130386496007
-0.000074207938930  0.000099788489339
-0.000084771743742  0.000094572124186
-0.000077006155483  0.000112540434925
-0.000090531521542  0.000067466021241
-0.000091994650522  0.000076921253037
-0.000080330371849  0.000074320318634
-0.000086123466356  0.000053451085906
-0.000095535587990  0.000046104482504
-0.000088531471048  0.000059849311064
-0.000061327174995  0.000104492414436
-0.000067901101465  0.000080345327329
-0.000071183772180  0.000089277805127
-0.000053338459719  0.000085468322982
-0.000060436814811  0.000065167091644
-0.000074419238448  0.000059838836587
-0.000064321724889  0.000072439558410
-0.000080333111251  0.000042681790698
-0.000090920555815  0.000036557886359
-0.000083373158182  0.000047828726675
-0.000105692211849  0.000021405020910
-0.000105867434632  0.000008998276642
-0.000108044401659  0.000010254366699
-0.000099394865446  0.000029543924574
-0.000101468536066  0.000033395475403
-0.000094267061671  0.000023080271434
-0.000101148154154  0.000016605561394
-0.000096963994214  0.000026169401605
-0.000100600135413  0.000006863436740
-0.000103351423116  0.000007889357829
-0.000095279527403  0.000012526644040
-0.000094356940474  0.000004912276136
-0.000097551204045  0.000005893549388
-0.000084592788311  0.000028151398721
-0.000087376045127  0.000016823131347
-0.000090924817252  0.000019941283992
-0.000076723454676  0.000019554146964
-0.000079746632287  0.000010318708396
-0.000088455270384  0.000008427780407
-0.000083646368607  0.000013638182388
-0.000087605470167  0.000002828770617
-0.000091038633189  0.000003896937964
-0.000067007379424  0.000047304291393
-0.000072570441080  0.000032064153695
-0.000076590268468  0.000037324130330
-0.000044131734522  0.000069263251765
-0.000051439259944  0.000050953285527
-0.000056100916938  0.000057992320053
-0.000033537706132  0.000053624177620
-0.000041128222774  0.000036588567174
-0.000058119736203  0.000034875600177
-0.000046450184386  0.000043867010022
-0.000063759862404  0.000021259081007
-0.000068291496508  0.000026748624829
-0.000047866413111  0.000021516852182
-0.000053730595474  0.000009184810340
-0.000067986666403  0.000010309233840
-0.000058881463023  0.000015404693871
-0.000021453218296  0.000037173489775
-0.000029242707343  0.000020710409635
-0.000035369312718  0.000028863144095
-0.000007754403160  0.000018968203981
-0.000036127033880  0.000006304036950
-0.000022617225526  0.000011889502077
-0.000058356006238 -0.000000177149200
-0.000048198468459  0.000002408767455
-0.000080933808056  0.000003860065823
-0.000080248908262  0.000000427755432
-0.000083989332399  0.000001671851774
-0.000071288055535  0.000002921145063
-0.000075608279885  0.000006742335294
-0.000072676941065 -0.000001479761955
-0.000066694916574 -0.000001264344956
-0.000076302960648 -0.000000942865405
-0.000068875507204  0.000214372437442
-0.000066890691948  0.000169869984850
-0.000073553674833  0.000192722569607
-0.000059809611499  0.000255862089303
-0.000055118595538  0.000212724877643
-0.000064375678422  0.000235526336336
-0.000040737798327  0.000213767232287
-0.000041370169866  0.000176432391726
-0.000054606871808  0.000172144437841
-0.000047670321318  0.000193137815956
-0.000057238803200  0.000135825188063
-0.000061696960627  0.000151167466385
-0.000051431500761  0.000294886571589
-0.000044139483161  0.000253879872218
-0.000055644005892  0.000275788504430
-0.000043324637663  0.000330942859540
-0.000033998893810  0.000292723742653
-0.000047388937811  0.000313317628347
-0.000016655715076  0.000292753235747
-0.000012364198032  0.000257115009569
-0.000028388578551  0.000254472576344
-0.000022477014225  0.000273969537347
-0.000026268872115  0.000217295910345
-0.000034531054286  0.000234407692341
-0.000010806831803  0.000222229427301
-0.000011642993840  0.000188728753204
-0.000026876448927  0.000181982287551
-0.000018749547515  0.000202187391679
 0.000004346444736  0.000261202673646
 0.000005660703694  0.000228220695930
-0.000003095131394  0.000241941862520
 0.000023163894258  0.000234960705535
 0.000022831754535  0.000203910638956
 0.000004925601917  0.000196114229844
 0.000014222255094  0.000215643565301
 0.000002423713717  0.000165240452427
-0.000014429413263  0.000157084579628
-0.000004655033166  0.000176530286865
-0.000044307165438  0.000142220712551
-0.000048603983427  0.000111847421317
-0.000052940061565  0.000122943034853
-0.000030017534583  0.000149363554369
-0.000035580698507  0.000161999201748
-0.000018678390154  0.000127618996367
-0.000034377085355  0.000119579581407
-0.000024436164864  0.000138038516220
-0.000039276857649  0.000092882152301
-0.000044077860445  0.000101971385551
-0.000023201988521  0.000100235152584
-0.000028272679163  0.000075596302501
-0.000033961456028  0.000084144596780
-0.000000765257576  0.000135225418648
-0.000005053026289  0.000107356523435
-0.000012069461313  0.000117335700446
 0.000015253562654  0.000114062096505
 0.000010439752289  0.000087324749418
-0.000010117935031  0.000081679763196
 0.000002433671480  0.000097423248140
-0.000015674050794  0.000058252591355
-0.000022184401264  0.000067023381666
 0.000021231773125  0.000173165101067
 0.000018607288128  0.000143111056589